LAMMPS data file via write_data, version 2 Apr 2025, timestep = 0, units = si

4412 atoms
2 atom types

-15 15 xlo xhi
-15 15 ylo yhi
-15 15 zlo zhi

Masses

1 7750
2 7750

Atoms # smd

  8377  1  1  1.5625e-08 0.00012109375 0.0025125 0.5 -1.0000000e+01 -1.0000000e+01  8.0000000e+00 -1.0000000e+01 -1.0000000e+01  8.0000000e+00  1 0 0 0 0
  8378  1  1  1.5625e-08 0.00012109375 0.0025125 0.5 -1.0000000e+01 -1.0000000e+01  9.0000000e+00 -1.0000000e+01 -1.0000000e+01  9.0000000e+00  1 0 0 0 0
  8379  1  1  1.5625e-08 0.00012109375 0.0025125 0.5 -1.0000000e+01 -1.0000000e+01  1.0000000e+01 -1.0000000e+01 -1.0000000e+01  1.0000000e+01  1 0 0 0 0
  8380  1  1  1.5625e-08 0.00012109375 0.0025125 0.5 -1.0000000e+01 -1.0000000e+01  1.1000000e+01 -1.0000000e+01 -1.0000000e+01  1.1000000e+01  1 0 0 0 0
  8381  1  1  1.5625e-08 0.00012109375 0.0025125 0.5 -1.0000000e+01 -1.0000000e+01  1.2000000e+01 -1.0000000e+01 -1.0000000e+01  1.2000000e+01  1 0 0 0 0
  8382  1  1  1.5625e-08 0.00012109375 0.0025125 0.5 -1.0000000e+01 -9.0000000e+00  8.0000000e+00 -1.0000000e+01 -9.0000000e+00  8.0000000e+00  1 0 0 0 0
  8383  1  1  1.5625e-08 0.00012109375 0.0025125 0.5 -1.0000000e+01 -9.0000000e+00  9.0000000e+00 -1.0000000e+01 -9.0000000e+00  9.0000000e+00  1 0 0 0 0
  8384  1  1  1.5625e-08 0.00012109375 0.0025125 0.5 -1.0000000e+01 -9.0000000e+00  1.0000000e+01 -1.0000000e+01 -9.0000000e+00  1.0000000e+01  1 0 0 0 0
  8385  1  1  1.5625e-08 0.00012109375 0.0025125 0.5 -1.0000000e+01 -9.0000000e+00  1.1000000e+01 -1.0000000e+01 -9.0000000e+00  1.1000000e+01  1 0 0 0 0
  8386  1  1  1.5625e-08 0.00012109375 0.0025125 0.5 -1.0000000e+01 -9.0000000e+00  1.2000000e+01 -1.0000000e+01 -9.0000000e+00  1.2000000e+01  1 0 0 0 0
  8387  1  1  1.5625e-08 0.00012109375 0.0025125 0.5 -1.0000000e+01 -8.0000000e+00  8.0000000e+00 -1.0000000e+01 -8.0000000e+00  8.0000000e+00  1 0 0 0 0
  8388  1  1  1.5625e-08 0.00012109375 0.0025125 0.5 -1.0000000e+01 -8.0000000e+00  9.0000000e+00 -1.0000000e+01 -8.0000000e+00  9.0000000e+00  1 0 0 0 0
  8389  1  1  1.5625e-08 0.00012109375 0.0025125 0.5 -1.0000000e+01 -8.0000000e+00  1.0000000e+01 -1.0000000e+01 -8.0000000e+00  1.0000000e+01  1 0 0 0 0
  8390  1  1  1.5625e-08 0.00012109375 0.0025125 0.5 -1.0000000e+01 -8.0000000e+00  1.1000000e+01 -1.0000000e+01 -8.0000000e+00  1.1000000e+01  1 0 0 0 0
  8391  1  1  1.5625e-08 0.00012109375 0.0025125 0.5 -1.0000000e+01 -8.0000000e+00  1.2000000e+01 -1.0000000e+01 -8.0000000e+00  1.2000000e+01  1 0 0 0 0
  8392  1  1  1.5625e-08 0.00012109375 0.0025125 0.5 -1.0000000e+01 -7.0000000e+00  8.0000000e+00 -1.0000000e+01 -7.0000000e+00  8.0000000e+00  1 0 0 0 0
  8393  1  1  1.5625e-08 0.00012109375 0.0025125 0.5 -1.0000000e+01 -7.0000000e+00  9.0000000e+00 -1.0000000e+01 -7.0000000e+00  9.0000000e+00  1 0 0 0 0
  8394  1  1  1.5625e-08 0.00012109375 0.0025125 0.5 -1.0000000e+01 -7.0000000e+00  1.0000000e+01 -1.0000000e+01 -7.0000000e+00  1.0000000e+01  1 0 0 0 0
  8395  1  1  1.5625e-08 0.00012109375 0.0025125 0.5 -1.0000000e+01 -7.0000000e+00  1.1000000e+01 -1.0000000e+01 -7.0000000e+00  1.1000000e+01  1 0 0 0 0
  8396  1  1  1.5625e-08 0.00012109375 0.0025125 0.5 -1.0000000e+01 -7.0000000e+00  1.2000000e+01 -1.0000000e+01 -7.0000000e+00  1.2000000e+01  1 0 0 0 0
  8397  1  1  1.5625e-08 0.00012109375 0.0025125 0.5 -1.0000000e+01 -6.0000000e+00  8.0000000e+00 -1.0000000e+01 -6.0000000e+00  8.0000000e+00  1 0 0 0 0
  8398  1  1  1.5625e-08 0.00012109375 0.0025125 0.5 -1.0000000e+01 -6.0000000e+00  9.0000000e+00 -1.0000000e+01 -6.0000000e+00  9.0000000e+00  1 0 0 0 0
  8399  1  1  1.5625e-08 0.00012109375 0.0025125 0.5 -1.0000000e+01 -6.0000000e+00  1.0000000e+01 -1.0000000e+01 -6.0000000e+00  1.0000000e+01  1 0 0 0 0
  8400  1  1  1.5625e-08 0.00012109375 0.0025125 0.5 -1.0000000e+01 -6.0000000e+00  1.1000000e+01 -1.0000000e+01 -6.0000000e+00  1.1000000e+01  1 0 0 0 0
  8401  1  1  1.5625e-08 0.00012109375 0.0025125 0.5 -1.0000000e+01 -6.0000000e+00  1.2000000e+01 -1.0000000e+01 -6.0000000e+00  1.2000000e+01  1 0 0 0 0
  8402  1  1  1.5625e-08 0.00012109375 0.0025125 0.5 -1.0000000e+01 -5.0000000e+00  8.0000000e+00 -1.0000000e+01 -5.0000000e+00  8.0000000e+00  1 0 0 0 0
  8403  1  1  1.5625e-08 0.00012109375 0.0025125 0.5 -1.0000000e+01 -5.0000000e+00  9.0000000e+00 -1.0000000e+01 -5.0000000e+00  9.0000000e+00  1 0 0 0 0
  8404  1  1  1.5625e-08 0.00012109375 0.0025125 0.5 -1.0000000e+01 -5.0000000e+00  1.0000000e+01 -1.0000000e+01 -5.0000000e+00  1.0000000e+01  1 0 0 0 0
  8405  1  1  1.5625e-08 0.00012109375 0.0025125 0.5 -1.0000000e+01 -5.0000000e+00  1.1000000e+01 -1.0000000e+01 -5.0000000e+00  1.1000000e+01  1 0 0 0 0
  8406  1  1  1.5625e-08 0.00012109375 0.0025125 0.5 -1.0000000e+01 -5.0000000e+00  1.2000000e+01 -1.0000000e+01 -5.0000000e+00  1.2000000e+01  1 0 0 0 0
  8407  1  1  1.5625e-08 0.00012109375 0.0025125 0.5 -1.0000000e+01 -4.0000000e+00  8.0000000e+00 -1.0000000e+01 -4.0000000e+00  8.0000000e+00  1 0 0 0 0
  8408  1  1  1.5625e-08 0.00012109375 0.0025125 0.5 -1.0000000e+01 -4.0000000e+00  9.0000000e+00 -1.0000000e+01 -4.0000000e+00  9.0000000e+00  1 0 0 0 0
  8409  1  1  1.5625e-08 0.00012109375 0.0025125 0.5 -1.0000000e+01 -4.0000000e+00  1.0000000e+01 -1.0000000e+01 -4.0000000e+00  1.0000000e+01  1 0 0 0 0
  8410  1  1  1.5625e-08 0.00012109375 0.0025125 0.5 -1.0000000e+01 -4.0000000e+00  1.1000000e+01 -1.0000000e+01 -4.0000000e+00  1.1000000e+01  1 0 0 0 0
  8411  1  1  1.5625e-08 0.00012109375 0.0025125 0.5 -1.0000000e+01 -4.0000000e+00  1.2000000e+01 -1.0000000e+01 -4.0000000e+00  1.2000000e+01  1 0 0 0 0
  8412  1  1  1.5625e-08 0.00012109375 0.0025125 0.5 -1.0000000e+01 -3.0000000e+00  8.0000000e+00 -1.0000000e+01 -3.0000000e+00  8.0000000e+00  1 0 0 0 0
  8413  1  1  1.5625e-08 0.00012109375 0.0025125 0.5 -1.0000000e+01 -3.0000000e+00  9.0000000e+00 -1.0000000e+01 -3.0000000e+00  9.0000000e+00  1 0 0 0 0
  8414  1  1  1.5625e-08 0.00012109375 0.0025125 0.5 -1.0000000e+01 -3.0000000e+00  1.0000000e+01 -1.0000000e+01 -3.0000000e+00  1.0000000e+01  1 0 0 0 0
  8415  1  1  1.5625e-08 0.00012109375 0.0025125 0.5 -1.0000000e+01 -3.0000000e+00  1.1000000e+01 -1.0000000e+01 -3.0000000e+00  1.1000000e+01  1 0 0 0 0
  8416  1  1  1.5625e-08 0.00012109375 0.0025125 0.5 -1.0000000e+01 -3.0000000e+00  1.2000000e+01 -1.0000000e+01 -3.0000000e+00  1.2000000e+01  1 0 0 0 0
  8417  1  1  1.5625e-08 0.00012109375 0.0025125 0.5 -1.0000000e+01 -2.0000000e+00  8.0000000e+00 -1.0000000e+01 -2.0000000e+00  8.0000000e+00  1 0 0 0 0
  8418  1  1  1.5625e-08 0.00012109375 0.0025125 0.5 -1.0000000e+01 -2.0000000e+00  9.0000000e+00 -1.0000000e+01 -2.0000000e+00  9.0000000e+00  1 0 0 0 0
  8419  1  1  1.5625e-08 0.00012109375 0.0025125 0.5 -1.0000000e+01 -2.0000000e+00  1.0000000e+01 -1.0000000e+01 -2.0000000e+00  1.0000000e+01  1 0 0 0 0
  8420  1  1  1.5625e-08 0.00012109375 0.0025125 0.5 -1.0000000e+01 -2.0000000e+00  1.1000000e+01 -1.0000000e+01 -2.0000000e+00  1.1000000e+01  1 0 0 0 0
  8421  1  1  1.5625e-08 0.00012109375 0.0025125 0.5 -1.0000000e+01 -2.0000000e+00  1.2000000e+01 -1.0000000e+01 -2.0000000e+00  1.2000000e+01  1 0 0 0 0
  8422  1  1  1.5625e-08 0.00012109375 0.0025125 0.5 -1.0000000e+01 -1.0000000e+00  8.0000000e+00 -1.0000000e+01 -1.0000000e+00  8.0000000e+00  1 0 0 0 0
  8423  1  1  1.5625e-08 0.00012109375 0.0025125 0.5 -1.0000000e+01 -1.0000000e+00  9.0000000e+00 -1.0000000e+01 -1.0000000e+00  9.0000000e+00  1 0 0 0 0
  8424  1  1  1.5625e-08 0.00012109375 0.0025125 0.5 -1.0000000e+01 -1.0000000e+00  1.0000000e+01 -1.0000000e+01 -1.0000000e+00  1.0000000e+01  1 0 0 0 0
  8425  1  1  1.5625e-08 0.00012109375 0.0025125 0.5 -1.0000000e+01 -1.0000000e+00  1.1000000e+01 -1.0000000e+01 -1.0000000e+00  1.1000000e+01  1 0 0 0 0
  8426  1  1  1.5625e-08 0.00012109375 0.0025125 0.5 -1.0000000e+01 -1.0000000e+00  1.2000000e+01 -1.0000000e+01 -1.0000000e+00  1.2000000e+01  1 0 0 0 0
  8427  1  1  1.5625e-08 0.00012109375 0.0025125 0.5 -1.0000000e+01  0.0000000e+00  8.0000000e+00 -1.0000000e+01  0.0000000e+00  8.0000000e+00  1 0 0 0 0
  8428  1  1  1.5625e-08 0.00012109375 0.0025125 0.5 -1.0000000e+01  0.0000000e+00  9.0000000e+00 -1.0000000e+01  0.0000000e+00  9.0000000e+00  1 0 0 0 0
  8429  1  1  1.5625e-08 0.00012109375 0.0025125 0.5 -1.0000000e+01  0.0000000e+00  1.0000000e+01 -1.0000000e+01  0.0000000e+00  1.0000000e+01  1 0 0 0 0
  8430  1  1  1.5625e-08 0.00012109375 0.0025125 0.5 -1.0000000e+01  0.0000000e+00  1.1000000e+01 -1.0000000e+01  0.0000000e+00  1.1000000e+01  1 0 0 0 0
  8431  1  1  1.5625e-08 0.00012109375 0.0025125 0.5 -1.0000000e+01  0.0000000e+00  1.2000000e+01 -1.0000000e+01  0.0000000e+00  1.2000000e+01  1 0 0 0 0
  8432  1  1  1.5625e-08 0.00012109375 0.0025125 0.5 -1.0000000e+01  1.0000000e+00  8.0000000e+00 -1.0000000e+01  1.0000000e+00  8.0000000e+00  1 0 0 0 0
  8433  1  1  1.5625e-08 0.00012109375 0.0025125 0.5 -1.0000000e+01  1.0000000e+00  9.0000000e+00 -1.0000000e+01  1.0000000e+00  9.0000000e+00  1 0 0 0 0
  8434  1  1  1.5625e-08 0.00012109375 0.0025125 0.5 -1.0000000e+01  1.0000000e+00  1.0000000e+01 -1.0000000e+01  1.0000000e+00  1.0000000e+01  1 0 0 0 0
  8435  1  1  1.5625e-08 0.00012109375 0.0025125 0.5 -1.0000000e+01  1.0000000e+00  1.1000000e+01 -1.0000000e+01  1.0000000e+00  1.1000000e+01  1 0 0 0 0
  8436  1  1  1.5625e-08 0.00012109375 0.0025125 0.5 -1.0000000e+01  1.0000000e+00  1.2000000e+01 -1.0000000e+01  1.0000000e+00  1.2000000e+01  1 0 0 0 0
  8437  1  1  1.5625e-08 0.00012109375 0.0025125 0.5 -1.0000000e+01  2.0000000e+00  8.0000000e+00 -1.0000000e+01  2.0000000e+00  8.0000000e+00  1 0 0 0 0
  8438  1  1  1.5625e-08 0.00012109375 0.0025125 0.5 -1.0000000e+01  2.0000000e+00  9.0000000e+00 -1.0000000e+01  2.0000000e+00  9.0000000e+00  1 0 0 0 0
  8439  1  1  1.5625e-08 0.00012109375 0.0025125 0.5 -1.0000000e+01  2.0000000e+00  1.0000000e+01 -1.0000000e+01  2.0000000e+00  1.0000000e+01  1 0 0 0 0
  8440  1  1  1.5625e-08 0.00012109375 0.0025125 0.5 -1.0000000e+01  2.0000000e+00  1.1000000e+01 -1.0000000e+01  2.0000000e+00  1.1000000e+01  1 0 0 0 0
  8441  1  1  1.5625e-08 0.00012109375 0.0025125 0.5 -1.0000000e+01  2.0000000e+00  1.2000000e+01 -1.0000000e+01  2.0000000e+00  1.2000000e+01  1 0 0 0 0
  8442  1  1  1.5625e-08 0.00012109375 0.0025125 0.5 -1.0000000e+01  3.0000000e+00  8.0000000e+00 -1.0000000e+01  3.0000000e+00  8.0000000e+00  1 0 0 0 0
  8443  1  1  1.5625e-08 0.00012109375 0.0025125 0.5 -1.0000000e+01  3.0000000e+00  9.0000000e+00 -1.0000000e+01  3.0000000e+00  9.0000000e+00  1 0 0 0 0
  8444  1  1  1.5625e-08 0.00012109375 0.0025125 0.5 -1.0000000e+01  3.0000000e+00  1.0000000e+01 -1.0000000e+01  3.0000000e+00  1.0000000e+01  1 0 0 0 0
  8445  1  1  1.5625e-08 0.00012109375 0.0025125 0.5 -1.0000000e+01  3.0000000e+00  1.1000000e+01 -1.0000000e+01  3.0000000e+00  1.1000000e+01  1 0 0 0 0
  8446  1  1  1.5625e-08 0.00012109375 0.0025125 0.5 -1.0000000e+01  3.0000000e+00  1.2000000e+01 -1.0000000e+01  3.0000000e+00  1.2000000e+01  1 0 0 0 0
  8447  1  1  1.5625e-08 0.00012109375 0.0025125 0.5 -1.0000000e+01  4.0000000e+00  8.0000000e+00 -1.0000000e+01  4.0000000e+00  8.0000000e+00  1 0 0 0 0
  8448  1  1  1.5625e-08 0.00012109375 0.0025125 0.5 -1.0000000e+01  4.0000000e+00  9.0000000e+00 -1.0000000e+01  4.0000000e+00  9.0000000e+00  1 0 0 0 0
  8449  1  1  1.5625e-08 0.00012109375 0.0025125 0.5 -1.0000000e+01  4.0000000e+00  1.0000000e+01 -1.0000000e+01  4.0000000e+00  1.0000000e+01  1 0 0 0 0
  8450  1  1  1.5625e-08 0.00012109375 0.0025125 0.5 -1.0000000e+01  4.0000000e+00  1.1000000e+01 -1.0000000e+01  4.0000000e+00  1.1000000e+01  1 0 0 0 0
  8451  1  1  1.5625e-08 0.00012109375 0.0025125 0.5 -1.0000000e+01  4.0000000e+00  1.2000000e+01 -1.0000000e+01  4.0000000e+00  1.2000000e+01  1 0 0 0 0
  8452  1  1  1.5625e-08 0.00012109375 0.0025125 0.5 -1.0000000e+01  5.0000000e+00  8.0000000e+00 -1.0000000e+01  5.0000000e+00  8.0000000e+00  1 0 0 0 0
  8453  1  1  1.5625e-08 0.00012109375 0.0025125 0.5 -1.0000000e+01  5.0000000e+00  9.0000000e+00 -1.0000000e+01  5.0000000e+00  9.0000000e+00  1 0 0 0 0
  8454  1  1  1.5625e-08 0.00012109375 0.0025125 0.5 -1.0000000e+01  5.0000000e+00  1.0000000e+01 -1.0000000e+01  5.0000000e+00  1.0000000e+01  1 0 0 0 0
  8455  1  1  1.5625e-08 0.00012109375 0.0025125 0.5 -1.0000000e+01  5.0000000e+00  1.1000000e+01 -1.0000000e+01  5.0000000e+00  1.1000000e+01  1 0 0 0 0
  8456  1  1  1.5625e-08 0.00012109375 0.0025125 0.5 -1.0000000e+01  5.0000000e+00  1.2000000e+01 -1.0000000e+01  5.0000000e+00  1.2000000e+01  1 0 0 0 0
  8457  1  1  1.5625e-08 0.00012109375 0.0025125 0.5 -1.0000000e+01  6.0000000e+00  8.0000000e+00 -1.0000000e+01  6.0000000e+00  8.0000000e+00  1 0 0 0 0
  8458  1  1  1.5625e-08 0.00012109375 0.0025125 0.5 -1.0000000e+01  6.0000000e+00  9.0000000e+00 -1.0000000e+01  6.0000000e+00  9.0000000e+00  1 0 0 0 0
  8459  1  1  1.5625e-08 0.00012109375 0.0025125 0.5 -1.0000000e+01  6.0000000e+00  1.0000000e+01 -1.0000000e+01  6.0000000e+00  1.0000000e+01  1 0 0 0 0
  8460  1  1  1.5625e-08 0.00012109375 0.0025125 0.5 -1.0000000e+01  6.0000000e+00  1.1000000e+01 -1.0000000e+01  6.0000000e+00  1.1000000e+01  1 0 0 0 0
  8461  1  1  1.5625e-08 0.00012109375 0.0025125 0.5 -1.0000000e+01  6.0000000e+00  1.2000000e+01 -1.0000000e+01  6.0000000e+00  1.2000000e+01  1 0 0 0 0
  8462  1  1  1.5625e-08 0.00012109375 0.0025125 0.5 -1.0000000e+01  7.0000000e+00  8.0000000e+00 -1.0000000e+01  7.0000000e+00  8.0000000e+00  1 0 0 0 0
  8463  1  1  1.5625e-08 0.00012109375 0.0025125 0.5 -1.0000000e+01  7.0000000e+00  9.0000000e+00 -1.0000000e+01  7.0000000e+00  9.0000000e+00  1 0 0 0 0
  8464  1  1  1.5625e-08 0.00012109375 0.0025125 0.5 -1.0000000e+01  7.0000000e+00  1.0000000e+01 -1.0000000e+01  7.0000000e+00  1.0000000e+01  1 0 0 0 0
  8465  1  1  1.5625e-08 0.00012109375 0.0025125 0.5 -1.0000000e+01  7.0000000e+00  1.1000000e+01 -1.0000000e+01  7.0000000e+00  1.1000000e+01  1 0 0 0 0
  8466  1  1  1.5625e-08 0.00012109375 0.0025125 0.5 -1.0000000e+01  7.0000000e+00  1.2000000e+01 -1.0000000e+01  7.0000000e+00  1.2000000e+01  1 0 0 0 0
  8467  1  1  1.5625e-08 0.00012109375 0.0025125 0.5 -1.0000000e+01  8.0000000e+00  8.0000000e+00 -1.0000000e+01  8.0000000e+00  8.0000000e+00  1 0 0 0 0
  8468  1  1  1.5625e-08 0.00012109375 0.0025125 0.5 -1.0000000e+01  8.0000000e+00  9.0000000e+00 -1.0000000e+01  8.0000000e+00  9.0000000e+00  1 0 0 0 0
  8469  1  1  1.5625e-08 0.00012109375 0.0025125 0.5 -1.0000000e+01  8.0000000e+00  1.0000000e+01 -1.0000000e+01  8.0000000e+00  1.0000000e+01  1 0 0 0 0
  8470  1  1  1.5625e-08 0.00012109375 0.0025125 0.5 -1.0000000e+01  8.0000000e+00  1.1000000e+01 -1.0000000e+01  8.0000000e+00  1.1000000e+01  1 0 0 0 0
  8471  1  1  1.5625e-08 0.00012109375 0.0025125 0.5 -1.0000000e+01  8.0000000e+00  1.2000000e+01 -1.0000000e+01  8.0000000e+00  1.2000000e+01  1 0 0 0 0
  8472  1  1  1.5625e-08 0.00012109375 0.0025125 0.5 -1.0000000e+01  9.0000000e+00  8.0000000e+00 -1.0000000e+01  9.0000000e+00  8.0000000e+00  1 0 0 0 0
  8473  1  1  1.5625e-08 0.00012109375 0.0025125 0.5 -1.0000000e+01  9.0000000e+00  9.0000000e+00 -1.0000000e+01  9.0000000e+00  9.0000000e+00  1 0 0 0 0
  8474  1  1  1.5625e-08 0.00012109375 0.0025125 0.5 -1.0000000e+01  9.0000000e+00  1.0000000e+01 -1.0000000e+01  9.0000000e+00  1.0000000e+01  1 0 0 0 0
  8475  1  1  1.5625e-08 0.00012109375 0.0025125 0.5 -1.0000000e+01  9.0000000e+00  1.1000000e+01 -1.0000000e+01  9.0000000e+00  1.1000000e+01  1 0 0 0 0
  8476  1  1  1.5625e-08 0.00012109375 0.0025125 0.5 -1.0000000e+01  9.0000000e+00  1.2000000e+01 -1.0000000e+01  9.0000000e+00  1.2000000e+01  1 0 0 0 0
  8477  1  1  1.5625e-08 0.00012109375 0.0025125 0.5 -9.0000000e+00 -1.0000000e+01  8.0000000e+00 -9.0000000e+00 -1.0000000e+01  8.0000000e+00  1 0 0 0 0
  8478  1  1  1.5625e-08 0.00012109375 0.0025125 0.5 -9.0000000e+00 -1.0000000e+01  9.0000000e+00 -9.0000000e+00 -1.0000000e+01  9.0000000e+00  1 0 0 0 0
  8479  1  1  1.5625e-08 0.00012109375 0.0025125 0.5 -9.0000000e+00 -1.0000000e+01  1.0000000e+01 -9.0000000e+00 -1.0000000e+01  1.0000000e+01  1 0 0 0 0
  8480  1  1  1.5625e-08 0.00012109375 0.0025125 0.5 -9.0000000e+00 -1.0000000e+01  1.1000000e+01 -9.0000000e+00 -1.0000000e+01  1.1000000e+01  1 0 0 0 0
  8481  1  1  1.5625e-08 0.00012109375 0.0025125 0.5 -9.0000000e+00 -1.0000000e+01  1.2000000e+01 -9.0000000e+00 -1.0000000e+01  1.2000000e+01  1 0 0 0 0
  8482  1  1  1.5625e-08 0.00012109375 0.0025125 0.5 -9.0000000e+00 -9.0000000e+00  8.0000000e+00 -9.0000000e+00 -9.0000000e+00  8.0000000e+00  1 0 0 0 0
  8483  1  1  1.5625e-08 0.00012109375 0.0025125 0.5 -9.0000000e+00 -9.0000000e+00  9.0000000e+00 -9.0000000e+00 -9.0000000e+00  9.0000000e+00  1 0 0 0 0
  8484  1  1  1.5625e-08 0.00012109375 0.0025125 0.5 -9.0000000e+00 -9.0000000e+00  1.0000000e+01 -9.0000000e+00 -9.0000000e+00  1.0000000e+01  1 0 0 0 0
  8485  1  1  1.5625e-08 0.00012109375 0.0025125 0.5 -9.0000000e+00 -9.0000000e+00  1.1000000e+01 -9.0000000e+00 -9.0000000e+00  1.1000000e+01  1 0 0 0 0
  8486  1  1  1.5625e-08 0.00012109375 0.0025125 0.5 -9.0000000e+00 -9.0000000e+00  1.2000000e+01 -9.0000000e+00 -9.0000000e+00  1.2000000e+01  1 0 0 0 0
  8487  1  1  1.5625e-08 0.00012109375 0.0025125 0.5 -9.0000000e+00 -8.0000000e+00  8.0000000e+00 -9.0000000e+00 -8.0000000e+00  8.0000000e+00  1 0 0 0 0
  8488  1  1  1.5625e-08 0.00012109375 0.0025125 0.5 -9.0000000e+00 -8.0000000e+00  9.0000000e+00 -9.0000000e+00 -8.0000000e+00  9.0000000e+00  1 0 0 0 0
  8489  1  1  1.5625e-08 0.00012109375 0.0025125 0.5 -9.0000000e+00 -8.0000000e+00  1.0000000e+01 -9.0000000e+00 -8.0000000e+00  1.0000000e+01  1 0 0 0 0
  8490  1  1  1.5625e-08 0.00012109375 0.0025125 0.5 -9.0000000e+00 -8.0000000e+00  1.1000000e+01 -9.0000000e+00 -8.0000000e+00  1.1000000e+01  1 0 0 0 0
  8491  1  1  1.5625e-08 0.00012109375 0.0025125 0.5 -9.0000000e+00 -8.0000000e+00  1.2000000e+01 -9.0000000e+00 -8.0000000e+00  1.2000000e+01  1 0 0 0 0
  8492  1  1  1.5625e-08 0.00012109375 0.0025125 0.5 -9.0000000e+00 -7.0000000e+00  8.0000000e+00 -9.0000000e+00 -7.0000000e+00  8.0000000e+00  1 0 0 0 0
  8493  1  1  1.5625e-08 0.00012109375 0.0025125 0.5 -9.0000000e+00 -7.0000000e+00  9.0000000e+00 -9.0000000e+00 -7.0000000e+00  9.0000000e+00  1 0 0 0 0
  8494  1  1  1.5625e-08 0.00012109375 0.0025125 0.5 -9.0000000e+00 -7.0000000e+00  1.0000000e+01 -9.0000000e+00 -7.0000000e+00  1.0000000e+01  1 0 0 0 0
  8495  1  1  1.5625e-08 0.00012109375 0.0025125 0.5 -9.0000000e+00 -7.0000000e+00  1.1000000e+01 -9.0000000e+00 -7.0000000e+00  1.1000000e+01  1 0 0 0 0
  8496  1  1  1.5625e-08 0.00012109375 0.0025125 0.5 -9.0000000e+00 -7.0000000e+00  1.2000000e+01 -9.0000000e+00 -7.0000000e+00  1.2000000e+01  1 0 0 0 0
  8497  1  1  1.5625e-08 0.00012109375 0.0025125 0.5 -9.0000000e+00 -6.0000000e+00  8.0000000e+00 -9.0000000e+00 -6.0000000e+00  8.0000000e+00  1 0 0 0 0
  8498  1  1  1.5625e-08 0.00012109375 0.0025125 0.5 -9.0000000e+00 -6.0000000e+00  9.0000000e+00 -9.0000000e+00 -6.0000000e+00  9.0000000e+00  1 0 0 0 0
  8499  1  1  1.5625e-08 0.00012109375 0.0025125 0.5 -9.0000000e+00 -6.0000000e+00  1.0000000e+01 -9.0000000e+00 -6.0000000e+00  1.0000000e+01  1 0 0 0 0
  8500  1  1  1.5625e-08 0.00012109375 0.0025125 0.5 -9.0000000e+00 -6.0000000e+00  1.1000000e+01 -9.0000000e+00 -6.0000000e+00  1.1000000e+01  1 0 0 0 0
  8501  1  1  1.5625e-08 0.00012109375 0.0025125 0.5 -9.0000000e+00 -6.0000000e+00  1.2000000e+01 -9.0000000e+00 -6.0000000e+00  1.2000000e+01  1 0 0 0 0
  8502  1  1  1.5625e-08 0.00012109375 0.0025125 0.5 -9.0000000e+00 -5.0000000e+00  8.0000000e+00 -9.0000000e+00 -5.0000000e+00  8.0000000e+00  1 0 0 0 0
  8503  1  1  1.5625e-08 0.00012109375 0.0025125 0.5 -9.0000000e+00 -5.0000000e+00  9.0000000e+00 -9.0000000e+00 -5.0000000e+00  9.0000000e+00  1 0 0 0 0
  8504  1  1  1.5625e-08 0.00012109375 0.0025125 0.5 -9.0000000e+00 -5.0000000e+00  1.0000000e+01 -9.0000000e+00 -5.0000000e+00  1.0000000e+01  1 0 0 0 0
  8505  1  1  1.5625e-08 0.00012109375 0.0025125 0.5 -9.0000000e+00 -5.0000000e+00  1.1000000e+01 -9.0000000e+00 -5.0000000e+00  1.1000000e+01  1 0 0 0 0
  8506  1  1  1.5625e-08 0.00012109375 0.0025125 0.5 -9.0000000e+00 -5.0000000e+00  1.2000000e+01 -9.0000000e+00 -5.0000000e+00  1.2000000e+01  1 0 0 0 0
  8507  1  1  1.5625e-08 0.00012109375 0.0025125 0.5 -9.0000000e+00 -4.0000000e+00  8.0000000e+00 -9.0000000e+00 -4.0000000e+00  8.0000000e+00  1 0 0 0 0
  8508  1  1  1.5625e-08 0.00012109375 0.0025125 0.5 -9.0000000e+00 -4.0000000e+00  9.0000000e+00 -9.0000000e+00 -4.0000000e+00  9.0000000e+00  1 0 0 0 0
  8509  1  1  1.5625e-08 0.00012109375 0.0025125 0.5 -9.0000000e+00 -4.0000000e+00  1.0000000e+01 -9.0000000e+00 -4.0000000e+00  1.0000000e+01  1 0 0 0 0
  8510  1  1  1.5625e-08 0.00012109375 0.0025125 0.5 -9.0000000e+00 -4.0000000e+00  1.1000000e+01 -9.0000000e+00 -4.0000000e+00  1.1000000e+01  1 0 0 0 0
  8511  1  1  1.5625e-08 0.00012109375 0.0025125 0.5 -9.0000000e+00 -4.0000000e+00  1.2000000e+01 -9.0000000e+00 -4.0000000e+00  1.2000000e+01  1 0 0 0 0
  8512  1  1  1.5625e-08 0.00012109375 0.0025125 0.5 -9.0000000e+00 -3.0000000e+00  8.0000000e+00 -9.0000000e+00 -3.0000000e+00  8.0000000e+00  1 0 0 0 0
  8513  1  1  1.5625e-08 0.00012109375 0.0025125 0.5 -9.0000000e+00 -3.0000000e+00  9.0000000e+00 -9.0000000e+00 -3.0000000e+00  9.0000000e+00  1 0 0 0 0
  8514  1  1  1.5625e-08 0.00012109375 0.0025125 0.5 -9.0000000e+00 -3.0000000e+00  1.0000000e+01 -9.0000000e+00 -3.0000000e+00  1.0000000e+01  1 0 0 0 0
  8515  1  1  1.5625e-08 0.00012109375 0.0025125 0.5 -9.0000000e+00 -3.0000000e+00  1.1000000e+01 -9.0000000e+00 -3.0000000e+00  1.1000000e+01  1 0 0 0 0
  8516  1  1  1.5625e-08 0.00012109375 0.0025125 0.5 -9.0000000e+00 -3.0000000e+00  1.2000000e+01 -9.0000000e+00 -3.0000000e+00  1.2000000e+01  1 0 0 0 0
  8517  1  1  1.5625e-08 0.00012109375 0.0025125 0.5 -9.0000000e+00 -2.0000000e+00  8.0000000e+00 -9.0000000e+00 -2.0000000e+00  8.0000000e+00  1 0 0 0 0
  8518  1  1  1.5625e-08 0.00012109375 0.0025125 0.5 -9.0000000e+00 -2.0000000e+00  9.0000000e+00 -9.0000000e+00 -2.0000000e+00  9.0000000e+00  1 0 0 0 0
  8519  1  1  1.5625e-08 0.00012109375 0.0025125 0.5 -9.0000000e+00 -2.0000000e+00  1.0000000e+01 -9.0000000e+00 -2.0000000e+00  1.0000000e+01  1 0 0 0 0
  8520  1  1  1.5625e-08 0.00012109375 0.0025125 0.5 -9.0000000e+00 -2.0000000e+00  1.1000000e+01 -9.0000000e+00 -2.0000000e+00  1.1000000e+01  1 0 0 0 0
  8521  1  1  1.5625e-08 0.00012109375 0.0025125 0.5 -9.0000000e+00 -2.0000000e+00  1.2000000e+01 -9.0000000e+00 -2.0000000e+00  1.2000000e+01  1 0 0 0 0
  8522  1  1  1.5625e-08 0.00012109375 0.0025125 0.5 -9.0000000e+00 -1.0000000e+00  8.0000000e+00 -9.0000000e+00 -1.0000000e+00  8.0000000e+00  1 0 0 0 0
  8523  1  1  1.5625e-08 0.00012109375 0.0025125 0.5 -9.0000000e+00 -1.0000000e+00  9.0000000e+00 -9.0000000e+00 -1.0000000e+00  9.0000000e+00  1 0 0 0 0
  8524  1  1  1.5625e-08 0.00012109375 0.0025125 0.5 -9.0000000e+00 -1.0000000e+00  1.0000000e+01 -9.0000000e+00 -1.0000000e+00  1.0000000e+01  1 0 0 0 0
  8525  1  1  1.5625e-08 0.00012109375 0.0025125 0.5 -9.0000000e+00 -1.0000000e+00  1.1000000e+01 -9.0000000e+00 -1.0000000e+00  1.1000000e+01  1 0 0 0 0
  8526  1  1  1.5625e-08 0.00012109375 0.0025125 0.5 -9.0000000e+00 -1.0000000e+00  1.2000000e+01 -9.0000000e+00 -1.0000000e+00  1.2000000e+01  1 0 0 0 0
  8527  1  1  1.5625e-08 0.00012109375 0.0025125 0.5 -9.0000000e+00  0.0000000e+00  8.0000000e+00 -9.0000000e+00  0.0000000e+00  8.0000000e+00  1 0 0 0 0
  8528  1  1  1.5625e-08 0.00012109375 0.0025125 0.5 -9.0000000e+00  0.0000000e+00  9.0000000e+00 -9.0000000e+00  0.0000000e+00  9.0000000e+00  1 0 0 0 0
  8529  1  1  1.5625e-08 0.00012109375 0.0025125 0.5 -9.0000000e+00  0.0000000e+00  1.0000000e+01 -9.0000000e+00  0.0000000e+00  1.0000000e+01  1 0 0 0 0
  8530  1  1  1.5625e-08 0.00012109375 0.0025125 0.5 -9.0000000e+00  0.0000000e+00  1.1000000e+01 -9.0000000e+00  0.0000000e+00  1.1000000e+01  1 0 0 0 0
  8531  1  1  1.5625e-08 0.00012109375 0.0025125 0.5 -9.0000000e+00  0.0000000e+00  1.2000000e+01 -9.0000000e+00  0.0000000e+00  1.2000000e+01  1 0 0 0 0
  8532  1  1  1.5625e-08 0.00012109375 0.0025125 0.5 -9.0000000e+00  1.0000000e+00  8.0000000e+00 -9.0000000e+00  1.0000000e+00  8.0000000e+00  1 0 0 0 0
  8533  1  1  1.5625e-08 0.00012109375 0.0025125 0.5 -9.0000000e+00  1.0000000e+00  9.0000000e+00 -9.0000000e+00  1.0000000e+00  9.0000000e+00  1 0 0 0 0
  8534  1  1  1.5625e-08 0.00012109375 0.0025125 0.5 -9.0000000e+00  1.0000000e+00  1.0000000e+01 -9.0000000e+00  1.0000000e+00  1.0000000e+01  1 0 0 0 0
  8535  1  1  1.5625e-08 0.00012109375 0.0025125 0.5 -9.0000000e+00  1.0000000e+00  1.1000000e+01 -9.0000000e+00  1.0000000e+00  1.1000000e+01  1 0 0 0 0
  8536  1  1  1.5625e-08 0.00012109375 0.0025125 0.5 -9.0000000e+00  1.0000000e+00  1.2000000e+01 -9.0000000e+00  1.0000000e+00  1.2000000e+01  1 0 0 0 0
  8537  1  1  1.5625e-08 0.00012109375 0.0025125 0.5 -9.0000000e+00  2.0000000e+00  8.0000000e+00 -9.0000000e+00  2.0000000e+00  8.0000000e+00  1 0 0 0 0
  8538  1  1  1.5625e-08 0.00012109375 0.0025125 0.5 -9.0000000e+00  2.0000000e+00  9.0000000e+00 -9.0000000e+00  2.0000000e+00  9.0000000e+00  1 0 0 0 0
  8539  1  1  1.5625e-08 0.00012109375 0.0025125 0.5 -9.0000000e+00  2.0000000e+00  1.0000000e+01 -9.0000000e+00  2.0000000e+00  1.0000000e+01  1 0 0 0 0
  8540  1  1  1.5625e-08 0.00012109375 0.0025125 0.5 -9.0000000e+00  2.0000000e+00  1.1000000e+01 -9.0000000e+00  2.0000000e+00  1.1000000e+01  1 0 0 0 0
  8541  1  1  1.5625e-08 0.00012109375 0.0025125 0.5 -9.0000000e+00  2.0000000e+00  1.2000000e+01 -9.0000000e+00  2.0000000e+00  1.2000000e+01  1 0 0 0 0
  8542  1  1  1.5625e-08 0.00012109375 0.0025125 0.5 -9.0000000e+00  3.0000000e+00  8.0000000e+00 -9.0000000e+00  3.0000000e+00  8.0000000e+00  1 0 0 0 0
  8543  1  1  1.5625e-08 0.00012109375 0.0025125 0.5 -9.0000000e+00  3.0000000e+00  9.0000000e+00 -9.0000000e+00  3.0000000e+00  9.0000000e+00  1 0 0 0 0
  8544  1  1  1.5625e-08 0.00012109375 0.0025125 0.5 -9.0000000e+00  3.0000000e+00  1.0000000e+01 -9.0000000e+00  3.0000000e+00  1.0000000e+01  1 0 0 0 0
  8545  1  1  1.5625e-08 0.00012109375 0.0025125 0.5 -9.0000000e+00  3.0000000e+00  1.1000000e+01 -9.0000000e+00  3.0000000e+00  1.1000000e+01  1 0 0 0 0
  8546  1  1  1.5625e-08 0.00012109375 0.0025125 0.5 -9.0000000e+00  3.0000000e+00  1.2000000e+01 -9.0000000e+00  3.0000000e+00  1.2000000e+01  1 0 0 0 0
  8547  1  1  1.5625e-08 0.00012109375 0.0025125 0.5 -9.0000000e+00  4.0000000e+00  8.0000000e+00 -9.0000000e+00  4.0000000e+00  8.0000000e+00  1 0 0 0 0
  8548  1  1  1.5625e-08 0.00012109375 0.0025125 0.5 -9.0000000e+00  4.0000000e+00  9.0000000e+00 -9.0000000e+00  4.0000000e+00  9.0000000e+00  1 0 0 0 0
  8549  1  1  1.5625e-08 0.00012109375 0.0025125 0.5 -9.0000000e+00  4.0000000e+00  1.0000000e+01 -9.0000000e+00  4.0000000e+00  1.0000000e+01  1 0 0 0 0
  8550  1  1  1.5625e-08 0.00012109375 0.0025125 0.5 -9.0000000e+00  4.0000000e+00  1.1000000e+01 -9.0000000e+00  4.0000000e+00  1.1000000e+01  1 0 0 0 0
  8551  1  1  1.5625e-08 0.00012109375 0.0025125 0.5 -9.0000000e+00  4.0000000e+00  1.2000000e+01 -9.0000000e+00  4.0000000e+00  1.2000000e+01  1 0 0 0 0
  8552  1  1  1.5625e-08 0.00012109375 0.0025125 0.5 -9.0000000e+00  5.0000000e+00  8.0000000e+00 -9.0000000e+00  5.0000000e+00  8.0000000e+00  1 0 0 0 0
  8553  1  1  1.5625e-08 0.00012109375 0.0025125 0.5 -9.0000000e+00  5.0000000e+00  9.0000000e+00 -9.0000000e+00  5.0000000e+00  9.0000000e+00  1 0 0 0 0
  8554  1  1  1.5625e-08 0.00012109375 0.0025125 0.5 -9.0000000e+00  5.0000000e+00  1.0000000e+01 -9.0000000e+00  5.0000000e+00  1.0000000e+01  1 0 0 0 0
  8555  1  1  1.5625e-08 0.00012109375 0.0025125 0.5 -9.0000000e+00  5.0000000e+00  1.1000000e+01 -9.0000000e+00  5.0000000e+00  1.1000000e+01  1 0 0 0 0
  8556  1  1  1.5625e-08 0.00012109375 0.0025125 0.5 -9.0000000e+00  5.0000000e+00  1.2000000e+01 -9.0000000e+00  5.0000000e+00  1.2000000e+01  1 0 0 0 0
  8557  1  1  1.5625e-08 0.00012109375 0.0025125 0.5 -9.0000000e+00  6.0000000e+00  8.0000000e+00 -9.0000000e+00  6.0000000e+00  8.0000000e+00  1 0 0 0 0
  8558  1  1  1.5625e-08 0.00012109375 0.0025125 0.5 -9.0000000e+00  6.0000000e+00  9.0000000e+00 -9.0000000e+00  6.0000000e+00  9.0000000e+00  1 0 0 0 0
  8559  1  1  1.5625e-08 0.00012109375 0.0025125 0.5 -9.0000000e+00  6.0000000e+00  1.0000000e+01 -9.0000000e+00  6.0000000e+00  1.0000000e+01  1 0 0 0 0
  8560  1  1  1.5625e-08 0.00012109375 0.0025125 0.5 -9.0000000e+00  6.0000000e+00  1.1000000e+01 -9.0000000e+00  6.0000000e+00  1.1000000e+01  1 0 0 0 0
  8561  1  1  1.5625e-08 0.00012109375 0.0025125 0.5 -9.0000000e+00  6.0000000e+00  1.2000000e+01 -9.0000000e+00  6.0000000e+00  1.2000000e+01  1 0 0 0 0
  8562  1  1  1.5625e-08 0.00012109375 0.0025125 0.5 -9.0000000e+00  7.0000000e+00  8.0000000e+00 -9.0000000e+00  7.0000000e+00  8.0000000e+00  1 0 0 0 0
  8563  1  1  1.5625e-08 0.00012109375 0.0025125 0.5 -9.0000000e+00  7.0000000e+00  9.0000000e+00 -9.0000000e+00  7.0000000e+00  9.0000000e+00  1 0 0 0 0
  8564  1  1  1.5625e-08 0.00012109375 0.0025125 0.5 -9.0000000e+00  7.0000000e+00  1.0000000e+01 -9.0000000e+00  7.0000000e+00  1.0000000e+01  1 0 0 0 0
  8565  1  1  1.5625e-08 0.00012109375 0.0025125 0.5 -9.0000000e+00  7.0000000e+00  1.1000000e+01 -9.0000000e+00  7.0000000e+00  1.1000000e+01  1 0 0 0 0
  8566  1  1  1.5625e-08 0.00012109375 0.0025125 0.5 -9.0000000e+00  7.0000000e+00  1.2000000e+01 -9.0000000e+00  7.0000000e+00  1.2000000e+01  1 0 0 0 0
  8567  1  1  1.5625e-08 0.00012109375 0.0025125 0.5 -9.0000000e+00  8.0000000e+00  8.0000000e+00 -9.0000000e+00  8.0000000e+00  8.0000000e+00  1 0 0 0 0
  8568  1  1  1.5625e-08 0.00012109375 0.0025125 0.5 -9.0000000e+00  8.0000000e+00  9.0000000e+00 -9.0000000e+00  8.0000000e+00  9.0000000e+00  1 0 0 0 0
  8569  1  1  1.5625e-08 0.00012109375 0.0025125 0.5 -9.0000000e+00  8.0000000e+00  1.0000000e+01 -9.0000000e+00  8.0000000e+00  1.0000000e+01  1 0 0 0 0