LAMMPS data file via write_data, version 29 Aug 2024, timestep = 0, units = si

144 atoms
1 atom types

2.995 40 xlo xhi
-4.002 10 ylo yhi
6.996 20 zlo zhi

Masses

1 7750

Atoms # smd

1 1 1 1 1 0.5 0.5 3 -4 7 3 -4 7 1 0 0 0 0
2 1 1 1 1 0.5 0.5 4 -4 7 4 -4 7 1 0 0 0 0
3 1 1 1 1 0.5 0.5 5 -4 7 5 -4 7 1 0 0 0 0
4 1 1 1 1 0.5 0.5 6 -4 7 6 -4 7 1 0 0 0 0
5 1 1 1 1 0.5 0.5 3 -3 7 3 -3 7 1 0 0 0 0
6 1 1 1 1 0.5 0.5 4 -3 7 4 -3 7 1 0 0 0 0
7 1 1 1 1 0.5 0.5 5 -3 7 5 -3 7 1 0 0 0 0
8 1 1 1 1 0.5 0.5 6 -3 7 6 -3 7 1 0 0 0 0
9 1 1 1 1 0.5 0.5 3 -2 7 3 -2 7 1 0 0 0 0
10 1 1 1 1 0.5 0.5 4 -2 7 4 -2 7 1 0 0 0 0
11 1 1 1 1 0.5 0.5 5 -2 7 5 -2 7 1 0 0 0 0
12 1 1 1 1 0.5 0.5 6 -2 7 6 -2 7 1 0 0 0 0
13 1 1 1 1 0.5 0.5 3 -1 7 3 -1 7 1 0 0 0 0
14 1 1 1 1 0.5 0.5 4 -1 7 4 -1 7 1 0 0 0 0
15 1 1 1 1 0.5 0.5 5 -1 7 5 -1 7 1 0 0 0 0
16 1 1 1 1 0.5 0.5 6 -1 7 6 -1 7 1 0 0 0 0
17 1 1 1 1 0.5 0.5 3 0 7 3 0 7 1 0 0 0 0
18 1 1 1 1 0.5 0.5 4 0 7 4 0 7 1 0 0 0 0
19 1 1 1 1 0.5 0.5 5 0 7 5 0 7 1 0 0 0 0
20 1 1 1 1 0.5 0.5 6 0 7 6 0 7 1 0 0 0 0
21 1 1 1 1 0.5 0.5 3 1 7 3 1 7 1 0 0 0 0
22 1 1 1 1 0.5 0.5 4 1 7 4 1 7 1 0 0 0 0
23 1 1 1 1 0.5 0.5 5 1 7 5 1 7 1 0 0 0 0
24 1 1 1 1 0.5 0.5 6 1 7 6 1 7 1 0 0 0 0
25 1 1 1 1 0.5 0.5 3 2 7 3 2 7 1 0 0 0 0
26 1 1 1 1 0.5 0.5 4 2 7 4 2 7 1 0 0 0 0
27 1 1 1 1 0.5 0.5 5 2 7 5 2 7 1 0 0 0 0
28 1 1 1 1 0.5 0.5 6 2 7 6 2 7 1 0 0 0 0
29 1 1 1 1 0.5 0.5 3 3 7 3 3 7 1 0 0 0 0
30 1 1 1 1 0.5 0.5 4 3 7 4 3 7 1 0 0 0 0
31 1 1 1 1 0.5 0.5 5 3 7 5 3 7 1 0 0 0 0
32 1 1 1 1 0.5 0.5 6 3 7 6 3 7 1 0 0 0 0
33 1 1 1 1 0.5 0.5 3 4 7 3 4 7 1 0 0 0 0
34 1 1 1 1 0.5 0.5 4 4 7 4 4 7 1 0 0 0 0
35 1 1 1 1 0.5 0.5 5 4 7 5 4 7 1 0 0 0 0
36 1 1 1 1 0.5 0.5 6 4 7 6 4 7 1 0 0 0 0
37 1 1 1 1 0.5 0.5 3 -4 8 3 -4 8 1 0 0 0 0
38 1 1 1 1 0.5 0.5 4 -4 8 4 -4 8 1 0 0 0 0
39 1 1 1 1 0.5 0.5 5 -4 8 5 -4 8 1 0 0 0 0
40 1 1 1 1 0.5 0.5 6 -4 8 6 -4 8 1 0 0 0 0
41 1 1 1 1 0.5 0.5 3 -3 8 3 -3 8 1 0 0 0 0
42 1 1 1 1 0.5 0.5 4 -3 8 4 -3 8 1 0 0 0 0
43 1 1 1 1 0.5 0.5 5 -3 8 5 -3 8 1 0 0 0 0
44 1 1 1 1 0.5 0.5 6 -3 8 6 -3 8 1 0 0 0 0
45 1 1 1 1 0.5 0.5 3 -2 8 3 -2 8 1 0 0 0 0
46 1 1 1 1 0.5 0.5 4 -2 8 4 -2 8 1 0 0 0 0
47 1 1 1 1 0.5 0.5 5 -2 8 5 -2 8 1 0 0 0 0
48 1 1 1 1 0.5 0.5 6 -2 8 6 -2 8 1 0 0 0 0
49 1 1 1 1 0.5 0.5 3 -1 8 3 -1 8 1 0 0 0 0
50 1 1 1 1 0.5 0.5 4 -1 8 4 -1 8 1 0 0 0 0
51 1 1 1 1 0.5 0.5 5 -1 8 5 -1 8 1 0 0 0 0
52 1 1 1 1 0.5 0.5 6 -1 8 6 -1 8 1 0 0 0 0
53 1 1 1 1 0.5 0.5 3 0 8 3 0 8 1 0 0 0 0
54 1 1 1 1 0.5 0.5 4 0 8 4 0 8 1 0 0 0 0
55 1 1 1 1 0.5 0.5 5 0 8 5 0 8 1 0 0 0 0
56 1 1 1 1 0.5 0.5 6 0 8 6 0 8 1 0 0 0 0
57 1 1 1 1 0.5 0.5 3 1 8 3 1 8 1 0 0 0 0
58 1 1 1 1 0.5 0.5 4 1 8 4 1 8 1 0 0 0 0
59 1 1 1 1 0.5 0.5 5 1 8 5 1 8 1 0 0 0 0
60 1 1 1 1 0.5 0.5 6 1 8 6 1 8 1 0 0 0 0
61 1 1 1 1 0.5 0.5 3 2 8 3 2 8 1 0 0 0 0
62 1 1 1 1 0.5 0.5 4 2 8 4 2 8 1 0 0 0 0
63 1 1 1 1 0.5 0.5 5 2 8 5 2 8 1 0 0 0 0
64 1 1 1 1 0.5 0.5 6 2 8 6 2 8 1 0 0 0 0
65 1 1 1 1 0.5 0.5 3 3 8 3 3 8 1 0 0 0 0
66 1 1 1 1 0.5 0.5 4 3 8 4 3 8 1 0 0 0 0
67 1 1 1 1 0.5 0.5 5 3 8 5 3 8 1 0 0 0 0
68 1 1 1 1 0.5 0.5 6 3 8 6 3 8 1 0 0 0 0
69 1 1 1 1 0.5 0.5 3 4 8 3 4 8 1 0 0 0 0
70 1 1 1 1 0.5 0.5 4 4 8 4 4 8 1 0 0 0 0
71 1 1 1 1 0.5 0.5 5 4 8 5 4 8 1 0 0 0 0
72 1 1 1 1 0.5 0.5 6 4 8 6 4 8 1 0 0 0 0
73 1 1 1 1 0.5 0.5 3 -4 9 3 -4 9 1 0 0 0 0
74 1 1 1 1 0.5 0.5 4 -4 9 4 -4 9 1 0 0 0 0
75 1 1 1 1 0.5 0.5 5 -4 9 5 -4 9 1 0 0 0 0
76 1 1 1 1 0.5 0.5 6 -4 9 6 -4 9 1 0 0 0 0
77 1 1 1 1 0.5 0.5 3 -3 9 3 -3 9 1 0 0 0 0
78 1 1 1 1 0.5 0.5 4 -3 9 4 -3 9 1 0 0 0 0
79 1 1 1 1 0.5 0.5 5 -3 9 5 -3 9 1 0 0 0 0
80 1 1 1 1 0.5 0.5 6 -3 9 6 -3 9 1 0 0 0 0
81 1 1 1 1 0.5 0.5 3 -2 9 3 -2 9 1 0 0 0 0
82 1 1 1 1 0.5 0.5 4 -2 9 4 -2 9 1 0 0 0 0
83 1 1 1 1 0.5 0.5 5 -2 9 5 -2 9 1 0 0 0 0
84 1 1 1 1 0.5 0.5 6 -2 9 6 -2 9 1 0 0 0 0
85 1 1 1 1 0.5 0.5 3 -1 9 3 -1 9 1 0 0 0 0
86 1 1 1 1 0.5 0.5 4 -1 9 4 -1 9 1 0 0 0 0
87 1 1 1 1 0.5 0.5 5 -1 9 5 -1 9 1 0 0 0 0
88 1 1 1 1 0.5 0.5 6 -1 9 6 -1 9 1 0 0 0 0
89 1 1 1 1 0.5 0.5 3 0 9 3 0 9 1 0 0 0 0
90 1 1 1 1 0.5 0.5 4 0 9 4 0 9 1 0 0 0 0
91 1 1 1 1 0.5 0.5 5 0 9 5 0 9 1 0 0 0 0
92 1 1 1 1 0.5 0.5 6 0 9 6 0 9 1 0 0 0 0
93 1 1 1 1 0.5 0.5 3 1 9 3 1 9 1 0 0 0 0
94 1 1 1 1 0.5 0.5 4 1 9 4 1 9 1 0 0 0 0
95 1 1 1 1 0.5 0.5 5 1 9 5 1 9 1 0 0 0 0
96 1 1 1 1 0.5 0.5 6 1 9 6 1 9 1 0 0 0 0
97 1 1 1 1 0.5 0.5 3 2 9 3 2 9 1 0 0 0 0
98 1 1 1 1 0.5 0.5 4 2 9 4 2 9 1 0 0 0 0
99 1 1 1 1 0.5 0.5 5 2 9 5 2 9 1 0 0 0 0
100 1 1 1 1 0.5 0.5 6 2 9 6 2 9 1 0 0 0 0
101 1 1 1 1 0.5 0.5 3 3 9 3 3 9 1 0 0 0 0
102 1 1 1 1 0.5 0.5 4 3 9 4 3 9 1 0 0 0 0
103 1 1 1 1 0.5 0.5 5 3 9 5 3 9 1 0 0 0 0
104 1 1 1 1 0.5 0.5 6 3 9 6 3 9 1 0 0 0 0
105 1 1 1 1 0.5 0.5 3 4 9 3 4 9 1 0 0 0 0
106 1 1 1 1 0.5 0.5 4 4 9 4 4 9 1 0 0 0 0
107 1 1 1 1 0.5 0.5 5 4 9 5 4 9 1 0 0 0 0
108 1 1 1 1 0.5 0.5 6 4 9 6 4 9 1 0 0 0 0
109 1 1 1 1 0.5 0.5 3 -4 10 3 -4 10 1 0 0 0 0
110 1 1 1 1 0.5 0.5 4 -4 10 4 -4 10 1 0 0 0 0
111 1 1 1 1 0.5 0.5 5 -4 10 5 -4 10 1 0 0 0 0
112 1 1 1 1 0.5 0.5 6 -4 10 6 -4 10 1 0 0 0 0
113 1 1 1 1 0.5 0.5 3 -3 10 3 -3 10 1 0 0 0 0
114 1 1 1 1 0.5 0.5 4 -3 10 4 -3 10 1 0 0 0 0
115 1 1 1 1 0.5 0.5 5 -3 10 5 -3 10 1 0 0 0 0
116 1 1 1 1 0.5 0.5 6 -3 10 6 -3 10 1 0 0 0 0
117 1 1 1 1 0.5 0.5 3 -2 10 3 -2 10 1 0 0 0 0
118 1 1 1 1 0.5 0.5 4 -2 10 4 -2 10 1 0 0 0 0
119 1 1 1 1 0.5 0.5 5 -2 10 5 -2 10 1 0 0 0 0
120 1 1 1 1 0.5 0.5 6 -2 10 6 -2 10 1 0 0 0 0
121 1 1 1 1 0.5 0.5 3 -1 10 3 -1 10 1 0 0 0 0
122 1 1 1 1 0.5 0.5 4 -1 10 4 -1 10 1 0 0 0 0
123 1 1 1 1 0.5 0.5 5 -1 10 5 -1 10 1 0 0 0 0
124 1 1 1 1 0.5 0.5 6 -1 10 6 -1 10 1 0 0 0 0
125 1 1 1 1 0.5 0.5 3 0 10 3 0 10 1 0 0 0 0
126 1 1 1 1 0.5 0.5 4 0 10 4 0 10 1 0 0 0 0
127 1 1 1 1 0.5 0.5 5 0 10 5 0 10 1 0 0 0 0
128 1 1 1 1 0.5 0.5 6 0 10 6 0 10 1 0 0 0 0
129 1 1 1 1 0.5 0.5 3 1 10 3 1 10 1 0 0 0 0
130 1 1 1 1 0.5 0.5 4 1 10 4 1 10 1 0 0 0 0
131 1 1 1 1 0.5 0.5 5 1 10 5 1 10 1 0 0 0 0
132 1 1 1 1 0.5 0.5 6 1 10 6 1 10 1 0 0 0 0
133 1 1 1 1 0.5 0.5 3 2 10 3 2 10 1 0 0 0 0
134 1 1 1 1 0.5 0.5 4 2 10 4 2 10 1 0 0 0 0
135 1 1 1 1 0.5 0.5 5 2 10 5 2 10 1 0 0 0 0
136 1 1 1 1 0.5 0.5 6 2 10 6 2 10 1 0 0 0 0
137 1 1 1 1 0.5 0.5 3 3 10 3 3 10 1 0 0 0 0
138 1 1 1 1 0.5 0.5 4 3 10 4 3 10 1 0 0 0 0
139 1 1 1 1 0.5 0.5 5 3 10 5 3 10 1 0 0 0 0
140 1 1 1 1 0.5 0.5 6 3 10 6 3 10 1 0 0 0 0
141 1 1 1 1 0.5 0.5 3 4 10 3 4 10 1 0 0 0 0
142 1 1 1 1 0.5 0.5 4 4 10 4 4 10 1 0 0 0 0
143 1 1 1 1 0.5 0.5 5 4 10 5 4 10 1 0 0 0 0
144 1 1 1 1 0.5 0.5 6 4 10 6 4 10 1 0 0 0 0

Velocities

1 0 0 0
2 0 0 0
3 0 0 0
4 0 0 0
5 0 0 0
6 0 0 0
7 0 0 0
8 0 0 0
9 0 0 0
10 0 0 0
11 0 0 0
12 0 0 0
13 0 0 0
14 0 0 0
15 0 0 0
16 0 0 0
17 0 0 0
18 0 0 0
19 0 0 0
20 0 0 0
21 0 0 0
22 0 0 0
23 0 0 0
24 0 0 0
25 0 0 0
26 0 0 0
27 0 0 0
28 0 0 0
29 0 0 0
30 0 0 0
31 0 0 0
32 0 0 0
33 0 0 0
34 0 0 0
35 0 0 0
36 0 0 0
37 0 0 0
38 0 0 0
39 0 0 0
40 0 0 0
41 0 0 0
42 0 0 0
43 0 0 0
44 0 0 0
45 0 0 0
46 0 0 0
47 0 0 0
48 0 0 0
49 0 0 0
50 0 0 0
51 0 0 0
52 0 0 0
53 0 0 0
54 0 0 0
55 0 0 0
56 0 0 0
57 0 0 0
58 0 0 0
59 0 0 0
60 0 0 0
61 0 0 0
62 0 0 0
63 0 0 0
64 0 0 0
65 0 0 0
66 0 0 0
67 0 0 0
68 0 0 0
69 0 0 0
70 0 0 0
71 0 0 0
72 0 0 0
73 0 0 0
74 0 0 0
75 0 0 0
76 0 0 0
77 0 0 0
78 0 0 0
79 0 0 0
80 0 0 0
81 0 0 0
82 0 0 0
83 0 0 0
84 0 0 0
85 0 0 0
86 0 0 0
87 0 0 0
88 0 0 0
89 0 0 0
90 0 0 0
91 0 0 0
92 0 0 0
93 0 0 0
94 0 0 0
95 0 0 0
96 0 0 0
97 0 0 0
98 0 0 0
99 0 0 0
100 0 0 0
101 0 0 0
102 0 0 0
103 0 0 0
104 0 0 0
105 0 0 0
106 0 0 0
107 0 0 0
108 0 0 0
109 0 0 0
110 0 0 0
111 0 0 0
112 0 0 0
113 0 0 0
114 0 0 0
115 0 0 0
116 0 0 0
117 0 0 0
118 0 0 0
119 0 0 0
120 0 0 0
121 0 0 0
122 0 0 0
123 0 0 0
124 0 0 0
125 0 0 0
126 0 0 0
127 0 0 0
128 0 0 0
129 0 0 0
130 0 0 0
131 0 0 0
132 0 0 0
133 0 0 0
134 0 0 0
135 0 0 0
136 0 0 0
137 0 0 0
138 0 0 0
139 0 0 0
140 0 0 0
141 0 0 0
142 0 0 0
143 0 0 0
144 0 0 0
